ITEM: TIMESTEP
1
ITEM: NUMBER OF ATOMS
650
ITEM: BOX BOUNDS pp pp pp
0.0 10.0
0.0 10.0
0.0 10.0
ITEM: ATOMS id type x y z fx fy fx radius
1 2 9.250419973256431 2.3510361081983877 0.8216138297631748 0.0 0.0 0.0 1.4
2 1 0.33559943229654277 5.876481831579721 5.465288421055396 0.0 0.0 0.0 1.0
3 2 3.220614576502552 7.195241912524963 9.209850914948001 0.0 0.0 0.0 1.4
4 2 0.6681308940217412 4.405912507782457 5.893634117083614 0.0 0.0 0.0 1.4
5 2 0.8560704979818068 5.8985604459804675 2.0479585438889925 0.0 0.0 0.0 1.4
6 1 0.8325162979185552 7.894463422922906 9.344598427423804 0.0 0.0 0.0 1.0
7 1 1.4747378818568357 3.319752164538279 1.0456264476234578 0.0 0.0 0.0 1.0
8 2 3.0625672848255037 2.8979539111561947 0.665784868548176 0.0 0.0 0.0 1.4
9 2 8.836408934714207 8.947788548094541 8.46229544230965 0.0 0.0 0.0 1.4
10 2 9.673907662281081 2.097881348645396 2.9677303018919443 0.0 0.0 0.0 1.4
11 2 6.227942633213899 1.8571805522990559 2.036904301048048 0.0 0.0 0.0 1.4
12 1 8.312391282190498 5.43044908031733 7.1791533215584895 0.0 0.0 0.0 1.0
13 1 9.203281010690764 0.8543735441569589 5.965251587378484 0.0 0.0 0.0 1.0
14 1 8.61572447134132 3.1208131050225707 6.2178352302289515 0.0 0.0 0.0 1.0
15 2 2.7968623546679905 7.351814399746259 7.327732334816726 0.0 0.0 0.0 1.4
16 1 4.7418788194937544 1.974223071973522 8.81022995011791 0.0 0.0 0.0 1.0
17 1 6.602920823417097 7.617199137006132 0.5401336210014063 0.0 0.0 0.0 1.0
18 1 2.354281679892154 6.214905573603355 8.752461880883814 0.0 0.0 0.0 1.0
19 1 8.994695471615442 3.5586520734058236 1.4802485280158328 0.0 0.0 0.0 1.0
20 2 5.304321218271843 7.806749016503074 9.36191413921672 0.0 0.0 0.0 1.4
21 2 3.2890882985151126 2.6709022593971277 7.172225117840513 0.0 0.0 0.0 1.4
22 2 0.9646178694397856 5.866474249426091 9.48133108914391 0.0 0.0 0.0 1.4
23 2 0.33434801486551535 8.606420836496028 0.5739139898125778 0.0 0.0 0.0 1.4
24 2 5.743767887813802 9.51367266284703 9.15756518120234 0.0 0.0 0.0 1.4
25 1 9.084997713939249 8.173382308875095 4.371521229944242 0.0 0.0 0.0 1.0
26 1 6.355546664804182 8.711837436149112 6.889615839597325 0.0 0.0 0.0 1.0
27 1 9.43481731994777 9.38270017048864 1.1172971062097226 0.0 0.0 0.0 1.0
28 1 1.2501337355989084 0.3009565542107584 8.068853265311319 0.0 0.0 0.0 1.0
29 1 4.96991643144181 7.7741190229690975 3.6943518146634524 0.0 0.0 0.0 1.0
30 1 5.453852485350512 1.8986446425165204 6.524780229238651 0.0 0.0 0.0 1.0
31 1 9.436979692130258 8.41076953834869 1.539174887664696 0.0 0.0 0.0 1.0
32 2 8.4927598088239 5.709113989219434 3.9054511408627457 0.0 0.0 0.0 1.4
33 1 4.1222832374981655 8.915349943580981 5.424009605036508 0.0 0.0 0.0 1.0
34 1 0.6386117739834418 7.017005784749295 9.9740876766735 0.0 0.0 0.0 1.0
35 1 4.999308686171469 2.5126087934758345 6.007469247244264 0.0 0.0 0.0 1.0
36 2 4.816470166213556 5.438113098717585 2.478368730703362 0.0 0.0 0.0 1.4
37 2 0.3287201399423867 1.558027389147325 4.14768595389021 0.0 0.0 0.0 1.4
38 2 0.8068511240207843 1.648138534467789 6.941831286797468 0.0 0.0 0.0 1.4
39 1 8.075038521740483 5.331188822093194 2.3898801608348186 0.0 0.0 0.0 1.0
40 1 8.200258731516266 6.707120958324715 7.07615958301904 0.0 0.0 0.0 1.0
41 2 1.2700468663913766 7.5123079075488475 6.25874100079529 0.0 0.0 0.0 1.4
42 1 9.579262367367093 3.2745874111104833 1.42848856772269 0.0 0.0 0.0 1.0
43 2 5.6270937942899435 5.8977766518114505 6.66908090385911 0.0 0.0 0.0 1.4
44 2 0.6303980791419539 6.358770735869048 2.473178528352127 0.0 0.0 0.0 1.4
45 2 3.507701378731467 4.809248807974786 0.20585006555369878 0.0 0.0 0.0 1.4
46 2 6.593689130549487 4.698909323138556 1.7715585098684983 0.0 0.0 0.0 1.4
47 1 2.4694702176472094 3.091559083231006 4.4549290500634715 0.0 0.0 0.0 1.0
48 1 2.60333395113324 2.672196036882737 7.281070022431253 0.0 0.0 0.0 1.0
49 1 9.188660169395298 0.7187630720305793 2.0951620556298 0.0 0.0 0.0 1.0
50 2 7.06796435204653 1.0316480561271724 5.019658280527668 0.0 0.0 0.0 1.4
51 2 7.461746033727234 9.864847688509002 0.735896073865383 0.0 0.0 0.0 1.4
52 2 1.4513392028391459 0.8858038061567175 3.7294714706484644 0.0 0.0 0.0 1.4
53 2 4.905819466179755 1.3236472376620956 1.6108498732002174 0.0 0.0 0.0 1.4
54 2 5.704459220439344 7.300017715856841 5.644715588849478 0.0 0.0 0.0 1.4
55 1 2.073874316171833 2.1155201505429 7.475057629313566 0.0 0.0 0.0 1.0
56 1 3.1080942998206718 4.12765194540013 3.397325105754063 0.0 0.0 0.0 1.0
57 2 3.5955223549584736 2.9047953772151414 3.9960110202056165 0.0 0.0 0.0 1.4
58 2 9.512448917875254 3.2745665665940704 0.5311677008401516 0.0 0.0 0.0 1.4
59 2 8.800420095654966 7.400045276314556 6.475228360643781 0.0 0.0 0.0 1.4
60 1 9.226671085965116 0.34969584314846536 2.8119280876418062 0.0 0.0 0.0 1.0
61 2 6.271353085820195 8.191911692187341 6.754341258742132 0.0 0.0 0.0 1.4
62 2 6.868095226241464 5.928357571152336 2.934585818983231 0.0 0.0 0.0 1.4
63 2 2.8400140153766684 6.181417777014513 9.255699355442017 0.0 0.0 0.0 1.4
64 2 1.5061077480741991 9.6456498640471 6.386926472982186 0.0 0.0 0.0 1.4
65 1 2.3773954936528585 4.045526536059296 9.753875993674415 0.0 0.0 0.0 1.0
66 1 2.93949975119977 0.1963056312385758 8.41021297164832 0.0 0.0 0.0 1.0
67 1 7.660454958379878 3.264856230189619 5.544354262264315 0.0 0.0 0.0 1.0
68 2 3.457049962025953 2.631371933320077 3.171597668242614 0.0 0.0 0.0 1.4
69 1 3.1491511776931236 2.9853499311581055 8.904057973240946 0.0 0.0 0.0 1.0
70 1 3.1063679787792697 5.726140539386839 1.054574327182456 0.0 0.0 0.0 1.0
71 1 4.095544130251163 3.929835326114186 6.761465480119718 0.0 0.0 0.0 1.0
72 1 5.744764726763341 7.383450127976365 2.325706722294081 0.0 0.0 0.0 1.0
73 1 0.4946612841445175 6.916643063677837 9.186740091024925 0.0 0.0 0.0 1.0
74 2 1.8974734006482419 2.9878416048631085 4.904639929724793 0.0 0.0 0.0 1.4
75 1 9.744145888526631 1.0911226617052039 8.783773298695795 0.0 0.0 0.0 1.0
76 2 9.330314464684978 3.1813259144811323 1.9148581744266435 0.0 0.0 0.0 1.4
77 2 2.5100763076090704 9.357318641738267 2.773546417502839 0.0 0.0 0.0 1.4
78 1 3.3446727785417196 6.281876821741403 0.4418402518540998 0.0 0.0 0.0 1.0
79 1 7.213650011564729 9.772884742188763 1.7677331706655997 0.0 0.0 0.0 1.0
80 1 0.586222798701137 5.336777596027861 8.013174036721287 0.0 0.0 0.0 1.0
81 2 7.292903894108276 3.8996909140786196 5.591202771958816 0.0 0.0 0.0 1.4
82 2 8.194657195539722 2.81069499416861 4.6110068010053284 0.0 0.0 0.0 1.4
83 2 2.9757109665988235 7.657063659906194 0.5889871560644577 0.0 0.0 0.0 1.4
84 2 1.3184361608724982 9.334204148441703 5.539611316563442 0.0 0.0 0.0 1.4
85 1 0.6360924652072075 1.4293094649619942 7.98327881303506 0.0 0.0 0.0 1.0
86 1 5.569512341261205 9.214711844321133 6.143853321636348 0.0 0.0 0.0 1.0
87 2 4.732103377375525 1.900544649534892 4.33073394311748 0.0 0.0 0.0 1.4
88 1 4.275045186256586 7.027092352692074 0.6670249435368025 0.0 0.0 0.0 1.0
89 1 1.0638250402196614 5.5412588693049685 4.871954304754196 0.0 0.0 0.0 1.0
90 1 8.116185716475009 7.9698059921012465 5.258557454701034 0.0 0.0 0.0 1.0
91 2 6.051681762416914 5.3562154592273465 0.4083373783049504 0.0 0.0 0.0 1.4
92 2 0.16784092840694376 2.7404345504981897 3.2256176439646467 0.0 0.0 0.0 1.4
93 1 4.501423123734725 4.6657333020694285 4.3868708308751225 0.0 0.0 0.0 1.0
94 1 5.783757586671376 2.0881876154008805 0.6838010831928498 0.0 0.0 0.0 1.0
95 1 1.804063121290056 3.3732440860848123 9.8724672071428 0.0 0.0 0.0 1.0
96 1 1.45986766982513 3.112614457873888 8.28434731863296 0.0 0.0 0.0 1.0
97 2 7.653330311770905 6.933977291895774 8.796749898212 0.0 0.0 0.0 1.4
98 2 3.489972881628458 1.306123343584007 2.866174534473027 0.0 0.0 0.0 1.4
99 1 5.283177239192285 5.918634134722178 0.08235883654712062 0.0 0.0 0.0 1.0
100 2 8.531236027546136 3.7111645698514972 6.936012469921291 0.0 0.0 0.0 1.4
101 2 7.049182569023009 2.403173217372754 4.9457819402117025 0.0 0.0 0.0 1.4
102 2 7.853517443474214 3.5578864958744827 2.309870049218299 0.0 0.0 0.0 1.4
103 1 0.3660305812498188 0.23466948029410517 0.6994261113449474 0.0 0.0 0.0 1.0
104 1 1.9468245531446993 4.369154211831356 6.170027235975921 0.0 0.0 0.0 1.0
105 1 6.027070153547818 0.6277313545365271 4.626066740523427 0.0 0.0 0.0 1.0
106 1 6.579944438787601 9.552991345981152 3.7890995674984573 0.0 0.0 0.0 1.0
107 1 3.756986541994467 3.4646217470123797 8.941623555627045 0.0 0.0 0.0 1.0
108 2 3.3312274163949263 0.41739343503517157 6.92305700811332 0.0 0.0 0.0 1.4
109 2 1.4607202864800661 9.53830154013869 9.332151928425569 0.0 0.0 0.0 1.4
110 2 5.921011712193369 4.375508242678208 3.716349557397405 0.0 0.0 0.0 1.4
111 2 1.6949316737472797 4.592967476866416 9.777171526201586 0.0 0.0 0.0 1.4
112 1 5.6757358794257495 0.6626481915233207 5.365512167823345 0.0 0.0 0.0 1.0
113 2 4.462566897641016 7.818550280060128 3.916531438169908 0.0 0.0 0.0 1.4
114 1 7.732213301576277 5.605381206550928 7.964593917719249 0.0 0.0 0.0 1.0
115 1 8.83646560296582 2.5502175906894275 7.615662122562297 0.0 0.0 0.0 1.0
116 1 9.915986906142626 5.879185203774531 2.422826662535993 0.0 0.0 0.0 1.0
117 1 4.286631533386989 8.298589115748475 8.03657596898871 0.0 0.0 0.0 1.0
118 1 4.098437254750653 4.279789631617048 7.312162107900795 0.0 0.0 0.0 1.0
119 1 0.8000815064712596 6.827345167875549 6.761302218269078 0.0 0.0 0.0 1.0
120 2 5.072242776140678 9.206169157971743 4.573819348761308 0.0 0.0 0.0 1.4
121 2 6.476614576807709 7.901509176787805 1.6479892378844152 0.0 0.0 0.0 1.4
122 2 2.7683378931042935 6.021718615529621 1.0236611602217027 0.0 0.0 0.0 1.4
123 1 1.9840242060026037 9.071581525232002 3.8825869353482734 0.0 0.0 0.0 1.0
124 2 2.773486860875276 8.392788402127433 0.020943471889061094 0.0 0.0 0.0 1.4
125 2 9.80894561292473 8.902404247995602 9.902357118616258 0.0 0.0 0.0 1.4
126 1 8.880643379715188 4.035011074083128 4.268051671202857 0.0 0.0 0.0 1.0
127 2 9.965566544852651 1.7377660257781335 8.43179385637007 0.0 0.0 0.0 1.4
128 2 4.864352556312383 7.555940144121731 4.179278650479108 0.0 0.0 0.0 1.4
129 2 6.955477426810901 6.854426656996764 1.8066159600297649 0.0 0.0 0.0 1.4
130 1 1.2795353742032956 8.012143291996907 4.2188064397030995 0.0 0.0 0.0 1.0
131 1 3.6740753705555407 9.0837769857385 4.361562537819939 0.0 0.0 0.0 1.0
132 2 5.412937429532027 0.4594792468815623 7.064052352649859 0.0 0.0 0.0 1.4
133 1 0.47032156497322397 0.9594429191286591 8.902548765143418 0.0 0.0 0.0 1.0
134 1 6.57781787497377 1.1334926708471338 1.8452372948804108 0.0 0.0 0.0 1.0
135 1 3.1155865249908765 4.439108280826261 0.17026666348414432 0.0 0.0 0.0 1.0
136 1 5.1854280867483045 0.9919389015609315 1.3446012060460588 0.0 0.0 0.0 1.0
137 2 3.567663324644419 4.643418602689035 0.8972851876413945 0.0 0.0 0.0 1.4
138 1 2.870761713956207 8.78985602070066 9.023330888584224 0.0 0.0 0.0 1.0
139 1 4.482987727551704 8.013160993106725 8.31279784948367 0.0 0.0 0.0 1.0
140 1 3.8432061176647303 9.304807370128552 4.470054401409145 0.0 0.0 0.0 1.0
141 2 3.254031185948516 2.023078670810623 1.2513083200745134 0.0 0.0 0.0 1.4
142 2 2.30017004627997 6.313163750689665 2.5430115821047616 0.0 0.0 0.0 1.4
143 1 9.874331868173023 4.726696052165249 8.146962100487173 0.0 0.0 0.0 1.0
144 1 6.172239393741059 1.16917037807303 5.457301658586586 0.0 0.0 0.0 1.0
145 1 8.591231653714786 3.445020615406511 6.6972276028301225 0.0 0.0 0.0 1.0
146 2 9.331409944917334 5.244035765101658 5.339354906653355 0.0 0.0 0.0 1.4
147 2 5.059887576180813 3.59560845544173 5.816990841046453 0.0 0.0 0.0 1.4
148 2 1.9534659981636748 4.409817005869055 6.692825637478523 0.0 0.0 0.0 1.4
149 2 3.822225834299675 6.0384097002045545 7.460998542416391 0.0 0.0 0.0 1.4
150 2 0.7371096233247676 7.118971231854976 6.67273238092424 0.0 0.0 0.0 1.4
151 1 0.6914989440656005 7.123403236485057 9.280482265459277 0.0 0.0 0.0 1.0
152 1 0.13545845636881104 7.6649523894849985 2.9554754301297703 0.0 0.0 0.0 1.0
153 1 2.6758066895081045 3.3661455481006275 9.161766218803155 0.0 0.0 0.0 1.0
154 2 9.382200556502509 6.582742630353698 6.265565098766848 0.0 0.0 0.0 1.4
155 2 6.4469305341005185 6.417640119781378 8.220458943622564 0.0 0.0 0.0 1.4
156 2 0.11654135089780304 3.061193509643816 2.2277403609061963 0.0 0.0 0.0 1.4
157 1 6.362540395935017 6.793815315058835 4.181795102753208 0.0 0.0 0.0 1.0
158 1 2.1662121602808737 8.533145427248236 8.101235059733165 0.0 0.0 0.0 1.0
159 1 9.639584486275758 9.021786575043343 9.496422405350646 0.0 0.0 0.0 1.0
160 2 8.944975715235453 9.1359715135043 8.894451690240032 0.0 0.0 0.0 1.4
161 2 8.979544516704665 8.83808607756932 9.623916951668754 0.0 0.0 0.0 1.4
162 1 1.760503300252907 3.5698898978280424 5.0126579317700815 0.0 0.0 0.0 1.0
163 2 4.65458814825944 6.447799824803829 8.657442142812151 0.0 0.0 0.0 1.4
164 2 3.3529673890322864 7.618903662316871 8.620665941354098 0.0 0.0 0.0 1.4
165 2 1.7932282581208914 4.760136815215943 9.774680704115966 0.0 0.0 0.0 1.4
166 2 6.82517383438568 7.958964716015775 2.1582170141474255 0.0 0.0 0.0 1.4
167 2 0.9505806107334958 9.088297998998847 7.595099911060272 0.0 0.0 0.0 1.4
168 2 6.423676057949079 4.943683186340955 7.316358122167738 0.0 0.0 0.0 1.4
169 1 5.289662533444874 6.292842449888907 8.531829880177906 0.0 0.0 0.0 1.0
170 2 6.317331800164421 0.8095791231760341 6.625378843984199 0.0 0.0 0.0 1.4
171 2 9.020044565380909 2.6254748481372414 8.611566928610825 0.0 0.0 0.0 1.4
172 1 2.4945595464808723 6.021736128468915 2.0305720610650346 0.0 0.0 0.0 1.0
173 1 1.5222087494892933 1.2029070202222414 2.0043843869321076 0.0 0.0 0.0 1.0
174 1 2.700020205123743 6.21622780645791 1.018454435749836 0.0 0.0 0.0 1.0
175 2 6.125981347961716 1.8943477878202986 8.537696178468092 0.0 0.0 0.0 1.4
176 2 0.6683104335858925 3.215361108650112 9.871963600781676 0.0 0.0 0.0 1.4
177 2 8.263837311036482 0.8227191517405918 3.071465220329177 0.0 0.0 0.0 1.4
178 1 1.8482106287854094 9.86946448488197 6.516373483526818 0.0 0.0 0.0 1.0
179 2 8.252023815721293 0.75360732323279 1.3331864098215251 0.0 0.0 0.0 1.4
180 2 3.6768174180677127 4.957094514910228 4.699132787897016 0.0 0.0 0.0 1.4
181 2 6.596281745882811 1.0199271507031038 2.1390573513933786 0.0 0.0 0.0 1.4
182 2 8.260444765201386 7.816804273271119 2.0739109389489685 0.0 0.0 0.0 1.4
183 2 8.62720545771693 9.02322919502466 5.231441964466709 0.0 0.0 0.0 1.4
184 1 6.039438559385424 4.832728649610736 0.007253291878279722 0.0 0.0 0.0 1.0
185 2 7.694409234467252 7.070960082915616 5.595614425856179 0.0 0.0 0.0 1.4
186 2 2.690446806712734 3.738588897788402 1.0098307818899133 0.0 0.0 0.0 1.4
187 2 8.496054848681634 5.852540115349846 8.482426010909359 0.0 0.0 0.0 1.4
188 2 1.7838782750610416 8.016304885544326 4.617884761459107 0.0 0.0 0.0 1.4
189 1 5.831834968282507 6.102767614255553 2.829548227696277 0.0 0.0 0.0 1.0
190 2 9.137779316928196 4.251823933517025 2.713301417438989 0.0 0.0 0.0 1.4
191 1 1.6018730173837392 4.109592340791382 4.677336191397075 0.0 0.0 0.0 1.0
192 2 0.07072825027388374 0.5093015648818411 4.421046977129553 0.0 0.0 0.0 1.4
193 2 7.078793546284765 6.672875719800775 1.229009284224385 0.0 0.0 0.0 1.4
194 2 4.246791805306618 2.2697632727024186 1.5755422918221917 0.0 0.0 0.0 1.4
195 2 1.1543305964846828 5.041814159979692 1.7407360567362828 0.0 0.0 0.0 1.4
196 2 4.927986531018707 6.290432756331028 2.5137287469634173 0.0 0.0 0.0 1.4
197 2 1.599299022849161 9.360475397429958 9.497051145238606 0.0 0.0 0.0 1.4
198 2 8.610254712367272 3.100475843906423 3.4896674729806976 0.0 0.0 0.0 1.4
199 1 4.776996938937761 4.297978267057063 7.480121767360806 0.0 0.0 0.0 1.0
200 2 9.34940890268306 9.121583389110938 4.472565578659635 0.0 0.0 0.0 1.4
201 1 1.9890242395856528 5.541884684917926 1.4868337025500833 0.0 0.0 0.0 1.0
202 2 7.555387052081024 1.929556695392134 4.555123625432122 0.0 0.0 0.0 1.4
203 1 9.966269745841101 4.850486707186219 6.555535291309003 0.0 0.0 0.0 1.0
204 2 6.950084958948965 7.460926758686595 1.2851068662082765 0.0 0.0 0.0 1.4
205 1 2.5195433059383143 5.124999342394034 6.895316312219403 0.0 0.0 0.0 1.0
206 2 2.292462156508004 2.7429480837147113 0.9421202879368007 0.0 0.0 0.0 1.4
207 2 1.5414298243173485 3.551590082027243 9.488401369474177 0.0 0.0 0.0 1.4
208 1 6.23514228171145 8.675124289243017 5.983039086541641 0.0 0.0 0.0 1.0
209 2 2.137822403891594 8.59652400603733 5.283075056228068 0.0 0.0 0.0 1.4
210 2 5.837355370996358 3.6095964069519826 2.1285718829503586 0.0 0.0 0.0 1.4
211 1 7.744290231585646 3.8255875120664062 8.50348768939938 0.0 0.0 0.0 1.0
212 1 8.787249705144148 5.648685155066153 2.376995826008017 0.0 0.0 0.0 1.0
213 1 5.40033830676383 4.547124327435553 9.372585656008978 0.0 0.0 0.0 1.0
214 2 6.265870712571411 7.7823254293411015 3.1472467393548964 0.0 0.0 0.0 1.4
215 1 0.29226331303243924 8.686708744737153 0.7733214964755519 0.0 0.0 0.0 1.0
216 1 3.7132097688364385 0.3693599341485987 1.163512157270341 0.0 0.0 0.0 1.0
217 2 6.795790383675366 6.449989665520659 5.511060161272281 0.0 0.0 0.0 1.4
218 2 7.662198276084777 4.8247462083369435 2.61466363286045 0.0 0.0 0.0 1.4
219 1 3.8746490773796483 3.998855488672204 3.5688165518944825 0.0 0.0 0.0 1.0
220 1 8.358180058389346 3.643639264120855 7.7985153685718185 0.0 0.0 0.0 1.0
221 1 5.7597941606881715 1.349315730680265 8.908387708151508 0.0 0.0 0.0 1.0
222 1 7.514507357171714 2.416611303708396 7.794087623676504 0.0 0.0 0.0 1.0
223 1 6.787104981839541 8.4301510966333 0.7960836903435209 0.0 0.0 0.0 1.0
224 1 1.7223066688510125 6.463837129690722 0.5478972055953335 0.0 0.0 0.0 1.0
225 2 0.5199611402599702 0.5348019131840065 5.362751436942787 0.0 0.0 0.0 1.4
226 2 1.5545902178241766 9.347406162584678 3.0602086644200677 0.0 0.0 0.0 1.4
227 2 9.356998058337771 0.03899770560944038 2.1711912757263807 0.0 0.0 0.0 1.4
228 2 0.6269812899593052 0.5915283972537311 6.517743876881948 0.0 0.0 0.0 1.4
229 2 5.075213020208087 3.7963702276262246 8.27972497107343 0.0 0.0 0.0 1.4
230 1 7.444049575574363 4.519245106958527 0.8197368075763367 0.0 0.0 0.0 1.0
231 1 7.2443121678823825 1.2283771153653822 3.5151385529503365 0.0 0.0 0.0 1.0
232 2 2.407062174195762 2.4777044276566196 6.198915463066539 0.0 0.0 0.0 1.4
233 1 4.916156896905788 5.609140117475844 5.452613494014722 0.0 0.0 0.0 1.0
234 2 0.08429233178729234 9.8444036817626 9.486209865791347 0.0 0.0 0.0 1.4
235 2 2.33086690910149 9.96570889906865 3.6878181211468863 0.0 0.0 0.0 1.4
236 1 7.567725558699716 0.6597287972147403 5.997843770872528 0.0 0.0 0.0 1.0
237 1 8.297768172295479 9.251311437337897 4.645398739457811 0.0 0.0 0.0 1.0
238 2 7.574053867692161 6.157932735697063 4.087278249490938 0.0 0.0 0.0 1.4
239 2 9.762454296279312 6.516583175543442 5.29891284006651 0.0 0.0 0.0 1.4
240 1 4.3523706625775604 2.3391461632294797 5.378113387396802 0.0 0.0 0.0 1.0
241 1 1.5229296621548838 4.022815854547699 3.54094065419591 0.0 0.0 0.0 1.0
242 1 5.5331991594005 9.26528762623176 3.0747115995717067 0.0 0.0 0.0 1.0
243 1 9.338473615201302 0.29139147017965383 9.422684215980631 0.0 0.0 0.0 1.0
244 1 8.307422852633785 9.185674900308356 4.8844976791674055 0.0 0.0 0.0 1.0
245 1 3.9894235473095274 9.161922642711955 4.59860138867109 0.0 0.0 0.0 1.0
246 2 2.5785831018424354 9.094424432581764 4.239045391376301 0.0 0.0 0.0 1.4
247 1 5.288257981754945 5.627971227785489 3.7500762599249016 0.0 0.0 0.0 1.0
248 2 9.749260135663365 6.744644252863232 8.484359670526961 0.0 0.0 0.0 1.4
249 1 9.393284183592696 4.507755943656853 2.9908473213471787 0.0 0.0 0.0 1.0
250 2 7.474566286025297 4.9272220362995744 0.7733886035321746 0.0 0.0 0.0 1.4
251 1 0.9804809676570025 2.303101023467873 9.063995185217786 0.0 0.0 0.0 1.0
252 2 7.988359321988712 3.4397360513594855 3.1332696259323867 0.0 0.0 0.0 1.4
253 2 0.686673747101596 8.147128477550385 8.373747249070131 0.0 0.0 0.0 1.4
254 1 2.462943930678545 3.4058463086034862 8.230910803993254 0.0 0.0 0.0 1.0
255 2 5.055498556543148 2.50023435075142 7.513833841390181 0.0 0.0 0.0 1.4
256 2 8.352307028563036 5.92351249109182 8.746836833161817 0.0 0.0 0.0 1.4
257 1 3.6559012286470294 5.991223104249997 9.160256989020944 0.0 0.0 0.0 1.0
258 2 5.189514355327624 2.2057198704144687 4.869285366491298 0.0 0.0 0.0 1.4
259 2 0.0077330646413109605 8.787514200926484 8.288999277606635 0.0 0.0 0.0 1.4
260 2 5.25531801317638 5.403759942385504 1.6363264705264902 0.0 0.0 0.0 1.4
261 2 5.066910793494708 5.501292665500747 2.496465031878994 0.0 0.0 0.0 1.4
262 1 9.009580653201414 2.4330818256078013 8.155917768558414 0.0 0.0 0.0 1.0
263 2 9.805183514446725 0.7891774629434112 9.629046511756457 0.0 0.0 0.0 1.4
264 1 5.735520231436244 2.2992261108694345 7.51196071323047 0.0 0.0 0.0 1.0
265 1 7.310308957827456 1.1292843545299713 9.866079816574569 0.0 0.0 0.0 1.0
266 2 2.8663850988809436 7.440817137884226 4.21069577275196 0.0 0.0 0.0 1.4
267 2 0.2191525853776355 1.6294760231039174 6.2924131399436956 0.0 0.0 0.0 1.4
268 2 9.859017860781877 0.5915344723893345 4.325623117533901 0.0 0.0 0.0 1.4
269 1 1.0579148841426722 6.574056314513939 2.0623843142388143 0.0 0.0 0.0 1.0
270 2 2.0071191502837604 2.751823843480341 6.742119696931217 0.0 0.0 0.0 1.4
271 1 0.67990349246972 2.892641756186498 5.444693321558418 0.0 0.0 0.0 1.0
272 2 2.416458011724334 5.521605654612398 3.0837434688998644 0.0 0.0 0.0 1.4
273 1 1.848712333147513 2.4878214340404536 9.142033124818113 0.0 0.0 0.0 1.0
274 1 7.018318449371364 9.829309545453855 4.572880415213221 0.0 0.0 0.0 1.0
275 1 3.1817477076697154 2.7792329874218624 1.1132930840702593 0.0 0.0 0.0 1.0
276 1 3.391957942283179 5.928692788740692 3.225232566450069 0.0 0.0 0.0 1.0
277 2 2.1404592418481894 0.7968814492983789 7.6512338853815915 0.0 0.0 0.0 1.4
278 1 2.374214034702351 7.922345786477997 1.1204759079820659 0.0 0.0 0.0 1.0
279 2 1.0926457503467701 3.433544874540797 4.619732174050157 0.0 0.0 0.0 1.4
280 2 4.411477503539123 3.520021809771945 0.5399488845713973 0.0 0.0 0.0 1.4
281 1 4.979157287280764 2.8522266747344927 9.6392722480352 0.0 0.0 0.0 1.0
282 1 8.33327149593459 1.8269046632108044 2.6459336700110825 0.0 0.0 0.0 1.0
283 2 7.881913495380923 7.668374772440649 1.283788657127407 0.0 0.0 0.0 1.4
284 2 2.354959588270491 5.121112429306374 5.025531212083807 0.0 0.0 0.0 1.4
285 2 1.0581979786737006 0.19674625388366174 1.0242852569355665 0.0 0.0 0.0 1.4
286 1 1.2183262447471432 2.828930032260535 5.607209179391206 0.0 0.0 0.0 1.0
287 2 3.9244362568987134 1.8986302468008587 1.4444361265875916 0.0 0.0 0.0 1.4
288 1 5.961985265342009 8.69071411354521 8.58682280622042 0.0 0.0 0.0 1.0
289 1 8.87686318534973 4.3683017418007815 2.091335684519242 0.0 0.0 0.0 1.0
290 1 4.6000170692989535 4.063440838722627 3.2925012426806877 0.0 0.0 0.0 1.0
291 2 2.1626311533832276 6.813118306659542 3.6193709895816384 0.0 0.0 0.0 1.4
292 1 0.9528880295412789 8.544933516002914 3.2052492192978033 0.0 0.0 0.0 1.0
293 1 4.816687090029701 0.1683348227612047 5.628700465741055 0.0 0.0 0.0 1.0
294 2 1.5335979388027576 6.752417193749187 8.61188443488759 0.0 0.0 0.0 1.4
295 2 1.7934652370202708 2.2953106781498867 7.788735470712805 0.0 0.0 0.0 1.4
296 1 8.601296488156812 4.147573659058718 3.954813916061699 0.0 0.0 0.0 1.0
297 2 8.623852407735985 4.919136724814523 6.473792574960453 0.0 0.0 0.0 1.4
298 1 8.928103936698648 4.600084490092382 2.179657281682301 0.0 0.0 0.0 1.0
299 1 0.2584787418851908 4.845187965668281 3.9249522773680323 0.0 0.0 0.0 1.0
300 2 3.1598025552540365 3.9380291594668493 8.953754916314523 0.0 0.0 0.0 1.4
301 2 9.250093669323773 3.2541454409011816 2.037955033435177 0.0 0.0 0.0 1.4
302 1 1.5761557325990116 4.542179970514786 4.249020914078827 0.0 0.0 0.0 1.0
303 1 2.9032988060578724 3.2158234799279217 5.84693731884337 0.0 0.0 0.0 1.0
304 2 5.719469990473809 7.090095301977821 7.881675769419192 0.0 0.0 0.0 1.4
305 2 4.290843305465424 3.144434656161421 6.079362259306462 0.0 0.0 0.0 1.4
306 2 8.115591033008226 2.89968358504314 6.3844573914396685 0.0 0.0 0.0 1.4
307 1 8.07653804760706 1.7853962673944235 8.190444508213163 0.0 0.0 0.0 1.0
308 2 1.1727519258885089 3.6317908338258453 6.773218830990968 0.0 0.0 0.0 1.4
309 2 1.2132761878459908 6.445139529511867 7.184706778254641 0.0 0.0 0.0 1.4
310 1 2.4810485880957978 0.27969042005481004 7.08196333502878 0.0 0.0 0.0 1.0
311 1 0.9726447641936686 7.732985203079002 7.001181093324655 0.0 0.0 0.0 1.0
312 1 1.4990201199119269 9.887101998762628 0.9258870242602946 0.0 0.0 0.0 1.0
313 2 7.211227117896611 9.05001841173297 3.829337643608144 0.0 0.0 0.0 1.4
314 2 3.190289266205182 1.0329621374449816 5.60473849419332 0.0 0.0 0.0 1.4
315 2 9.634403508981945 6.471123819088554 0.3303386929589047 0.0 0.0 0.0 1.4
316 1 3.5138520541382867 0.9150444264289725 9.111406086499139 0.0 0.0 0.0 1.0
317 2 0.4565502229516105 7.9734977654034385 8.414533391041072 0.0 0.0 0.0 1.4
318 2 1.4672633907924082 0.6580663879900572 5.361890314626809 0.0 0.0 0.0 1.4
319 2 2.7568897126253655 8.486333917098975 1.2890993695009545 0.0 0.0 0.0 1.4
320 2 1.8469719618567648 2.191887538064794 5.007692308190375 0.0 0.0 0.0 1.4
321 1 2.2542664145342006 1.2474079520108416 9.09992596078614 0.0 0.0 0.0 1.0
322 2 2.971961227719484 5.886088560413452 0.9500000965278166 0.0 0.0 0.0 1.4
323 1 3.7565549860586045 2.8742056432401175 3.292033794204736 0.0 0.0 0.0 1.0
324 1 2.08447239122181 0.28172261658277575 0.783279972526929 0.0 0.0 0.0 1.0
325 1 7.090327229756697 0.0502368808340381 3.1112895872794 0.0 0.0 0.0 1.0
326 2 7.161229593650282 6.093037270869552 5.6133148070905285 0.0 0.0 0.0 1.4
327 1 3.4903043243347676 3.789647773886422 2.3895452195598788 0.0 0.0 0.0 1.0
328 1 8.593830850458703 0.9875275321872867 6.826593011100977 0.0 0.0 0.0 1.0
329 2 4.796741676945828 7.064132370285437 8.610910802910318 0.0 0.0 0.0 1.4
330 1 2.1533330511598225 4.7668453624425 5.847720534663862 0.0 0.0 0.0 1.0
331 1 3.878679231000275 2.686221246358853 2.9384297221630162 0.0 0.0 0.0 1.0
332 2 1.4005673467733848 3.275642504516616 4.8029210983653 0.0 0.0 0.0 1.4
333 2 9.80414694539281 3.253044071697211 1.074921917625049 0.0 0.0 0.0 1.4
334 1 6.770541901670606 0.7748161392947428 0.13405344625217142 0.0 0.0 0.0 1.0
335 1 2.1805697703372218 4.506071855660389 1.4837369999446626 0.0 0.0 0.0 1.0
336 2 0.9785094799757066 5.39180032742645 6.128645713647705 0.0 0.0 0.0 1.4
337 2 4.993018206665254 6.461516607600997 1.4913445992549712 0.0 0.0 0.0 1.4
338 2 5.189950272403012 5.580751923661619 1.3150660641985223 0.0 0.0 0.0 1.4
339 2 0.8807578576256669 6.435831785160218 7.443501354858668 0.0 0.0 0.0 1.4
340 2 9.744351088371502 6.805083885264325 6.516677825294829 0.0 0.0 0.0 1.4
341 2 0.752369872304921 2.2998131465528293 1.3010388178038834 0.0 0.0 0.0 1.4
342 2 8.546604990555926 9.78506728362769 9.724110528586245 0.0 0.0 0.0 1.4
343 1 4.030050330710775 1.9794253143141027 6.599522307728347 0.0 0.0 0.0 1.0
344 2 8.95023124155494 5.846275487912493 0.4489308808675263 0.0 0.0 0.0 1.4
345 1 7.147712610700552 4.667280296961147 1.472929645221197 0.0 0.0 0.0 1.0
346 2 6.180827152596693 6.26839798478561 8.293067256071202 0.0 0.0 0.0 1.4
347 2 7.246933264985611 9.979103417121479 2.6892861706535975 0.0 0.0 0.0 1.4
348 2 2.8886245055300175 5.353201765921978 0.6266563139284975 0.0 0.0 0.0 1.4
349 2 0.33249849143365706 0.34082112267596054 3.8959860707264116 0.0 0.0 0.0 1.4
350 1 1.1903737261686764 5.031516393263555 2.313814484805312 0.0 0.0 0.0 1.0
351 2 4.094875899742054 1.7003932029067315 4.88883333426231 0.0 0.0 0.0 1.4
352 1 4.030220237195838 1.3318656864068612 4.197736733318305 0.0 0.0 0.0 1.0
353 1 6.110885394239305 0.4249240442168678 5.848095943480558 0.0 0.0 0.0 1.0
354 2 6.128376844732939 4.193172034201728 1.9484137968614346 0.0 0.0 0.0 1.4
355 2 4.986897817165136 7.136796360648699 3.5470468486825446 0.0 0.0 0.0 1.4
356 1 8.874140159002694 8.917433406584834 5.941003159725032 0.0 0.0 0.0 1.0
357 1 9.910495346566668 7.548711374115536 9.129581060153 0.0 0.0 0.0 1.0
358 1 2.431040043214696 9.18247173141044 1.7305235473775205 0.0 0.0 0.0 1.0
359 1 7.282111458841001 3.81643425349365 4.813410713555926 0.0 0.0 0.0 1.0
360 2 8.420801559820852 8.532655774408886 0.9078396101264841 0.0 0.0 0.0 1.4
361 2 8.075123717670929 1.1724121326047166 6.540698249425672 0.0 0.0 0.0 1.4
362 1 2.4632525463260446 5.014173975535758 6.428743629324172 0.0 0.0 0.0 1.0
363 2 6.7253404004011585 0.9457719469760062 9.932708386069969 0.0 0.0 0.0 1.4
364 2 1.0967629969141068 9.721865882340204 1.7950729067310212 0.0 0.0 0.0 1.4
365 1 9.640472755967124 4.356134025299918 4.2801900229740575 0.0 0.0 0.0 1.0
366 1 4.231294718278824 5.936100745305019 3.691266464236689 0.0 0.0 0.0 1.0
367 2 4.941316066181094 6.43238719515894 1.9924477404273722 0.0 0.0 0.0 1.4
368 1 7.48772396627589 2.3804645339755015 3.067367020204601 0.0 0.0 0.0 1.0
369 2 7.096631623499703 6.430381867351846 4.88530231545602 0.0 0.0 0.0 1.4
370 2 3.4231627827138755 7.390692814448682 5.785190003511261 0.0 0.0 0.0 1.4
371 1 8.376454656440027 8.780027092246968 8.703934361297511 0.0 0.0 0.0 1.0
372 2 6.563093668259416 9.303339213345263 2.186510600351208 0.0 0.0 0.0 1.4
373 2 5.246139496626945 0.20869159473820398 5.319235470572991 0.0 0.0 0.0 1.4
374 1 2.6517160210729473 9.135290563548601 6.1310352472293665 0.0 0.0 0.0 1.0
375 2 2.1834872546751227 4.196458269380507 8.908129881231762 0.0 0.0 0.0 1.4
376 1 0.9272646705250764 8.762098530475527 4.7373832193134096 0.0 0.0 0.0 1.0
377 2 7.670756054855319 4.569142746409627 2.012468962536509 0.0 0.0 0.0 1.4
378 1 3.003396129320961 0.5553416803203626 3.7838879398088765 0.0 0.0 0.0 1.0
379 1 7.2926069782732945 1.5595739774378958 9.66886922032134 0.0 0.0 0.0 1.0
380 1 9.445615358026437 7.074638100426423 9.155730556091076 0.0 0.0 0.0 1.0
381 1 0.9128614250555689 1.8526266343329634 5.0720990184302455 0.0 0.0 0.0 1.0
382 2 3.330275131781859 7.46902700756698 5.241150257608387 0.0 0.0 0.0 1.4
383 1 7.134929228859477 5.410453832472955 8.238926818235155 0.0 0.0 0.0 1.0
384 1 9.288352692344638 8.021785037261083 1.632154430508359 0.0 0.0 0.0 1.0
385 2 4.498701099084292 7.848477134957525 0.299658793598796 0.0 0.0 0.0 1.4
386 1 3.6217779979859377 1.5843384067619448 4.46628848052643 0.0 0.0 0.0 1.0
387 2 5.020291423440321 8.718988832370083 9.880678293586303 0.0 0.0 0.0 1.4
388 2 9.810451268415019 2.4811430560713688 2.9149101922402187 0.0 0.0 0.0 1.4
389 1 9.129496075824203 8.943502890208254 7.755635295974754 0.0 0.0 0.0 1.0
390 2 7.592022353470773 2.8951517851358943 0.7902704047674614 0.0 0.0 0.0 1.4